ITEM: TIMESTEP
0
ITEM: NUMBER OF ATOMS
1
ITEM: BOX BOUNDS ff ff ff
0.0000000000000000e+00 2.0000000000000000e+01
0.0000000000000000e+00 2.0000000000000000e+01
0.0000000000000000e+00 2.0000000000000000e+01
ITEM: ATOMS id type radius x y z 
2 1 0.5 15 15 15 
ITEM: TIMESTEP
1000
ITEM: NUMBER OF ATOMS
1
ITEM: BOX BOUNDS ff ff ff
0.0000000000000000e+00 2.0000000000000000e+01
0.0000000000000000e+00 2.0000000000000000e+01
0.0000000000000000e+00 2.0000000000000000e+01
ITEM: ATOMS id type radius x y z 
2 1 0.5 15 15 14.9999 
ITEM: TIMESTEP
2000
ITEM: NUMBER OF ATOMS
1
ITEM: BOX BOUNDS ff ff ff
0.0000000000000000e+00 2.0000000000000000e+01
0.0000000000000000e+00 2.0000000000000000e+01
0.0000000000000000e+00 2.0000000000000000e+01
ITEM: ATOMS id type radius x y z 
2 1 0.5 15 15 14.9998 
ITEM: TIMESTEP
3000
ITEM: NUMBER OF ATOMS
1
ITEM: BOX BOUNDS ff ff ff
0.0000000000000000e+00 2.0000000000000000e+01
0.0000000000000000e+00 2.0000000000000000e+01
0.0000000000000000e+00 2.0000000000000000e+01
ITEM: ATOMS id type radius x y z 
2 1 0.5 15 15 14.9995 
ITEM: TIMESTEP
4000
ITEM: NUMBER OF ATOMS
1
ITEM: BOX BOUNDS ff ff ff
0.0000000000000000e+00 2.0000000000000000e+01
0.0000000000000000e+00 2.0000000000000000e+01
0.0000000000000000e+00 2.0000000000000000e+01
ITEM: ATOMS id type radius x y z 
2 1 0.5 15 15 14.9992 
ITEM: TIMESTEP
5000
ITEM: NUMBER OF ATOMS
1
ITEM: BOX BOUNDS ff ff ff
0.0000000000000000e+00 2.0000000000000000e+01
0.0000000000000000e+00 2.0000000000000000e+01
0.0000000000000000e+00 2.0000000000000000e+01
ITEM: ATOMS id type radius x y z 
2 1 0.5 15 15 14.9987 
ITEM: TIMESTEP
6000
ITEM: NUMBER OF ATOMS
1
ITEM: BOX BOUNDS ff ff ff
0.0000000000000000e+00 2.0000000000000000e+01
0.0000000000000000e+00 2.0000000000000000e+01
0.0000000000000000e+00 2.0000000000000000e+01
ITEM: ATOMS id type radius x y z 
2 1 0.5 15 15 14.9981 
ITEM: TIMESTEP
7000
ITEM: NUMBER OF ATOMS
1
ITEM: BOX BOUNDS ff ff ff
0.0000000000000000e+00 2.0000000000000000e+01
0.0000000000000000e+00 2.0000000000000000e+01
0.0000000000000000e+00 2.0000000000000000e+01
ITEM: ATOMS id type radius x y z 
2 1 0.5 15 15 14.9975 
ITEM: TIMESTEP
8000
ITEM: NUMBER OF ATOMS
1
ITEM: BOX BOUNDS ff ff ff
0.0000000000000000e+00 2.0000000000000000e+01
0.0000000000000000e+00 2.0000000000000000e+01
0.0000000000000000e+00 2.0000000000000000e+01
ITEM: ATOMS id type radius x y z 
2 1 0.5 15 15 14.9967 
ITEM: TIMESTEP
9000
ITEM: NUMBER OF ATOMS
1
ITEM: BOX BOUNDS ff ff ff
0.0000000000000000e+00 2.0000000000000000e+01
0.0000000000000000e+00 2.0000000000000000e+01
0.0000000000000000e+00 2.0000000000000000e+01
ITEM: ATOMS id type radius x y z 
2 1 0.5 15 15 14.9958 
ITEM: TIMESTEP
10000
ITEM: NUMBER OF ATOMS
1
ITEM: BOX BOUNDS ff ff ff
0.0000000000000000e+00 2.0000000000000000e+01
0.0000000000000000e+00 2.0000000000000000e+01
0.0000000000000000e+00 2.0000000000000000e+01
ITEM: ATOMS id type radius x y z 
2 1 0.5 15 15 14.9948 
ITEM: TIMESTEP
11000
ITEM: NUMBER OF ATOMS
1
ITEM: BOX BOUNDS ff ff ff
0.0000000000000000e+00 2.0000000000000000e+01
0.0000000000000000e+00 2.0000000000000000e+01
0.0000000000000000e+00 2.0000000000000000e+01
ITEM: ATOMS id type radius x y z 
2 1 0.5 15 15 14.9937 
ITEM: TIMESTEP
12000
ITEM: NUMBER OF ATOMS
1
ITEM: BOX BOUNDS ff ff ff
0.0000000000000000e+00 2.0000000000000000e+01
0.0000000000000000e+00 2.0000000000000000e+01
0.0000000000000000e+00 2.0000000000000000e+01
ITEM: ATOMS id type radius x y z 
2 1 0.5 15 15 14.9926 
ITEM: TIMESTEP
13000
ITEM: NUMBER OF ATOMS
1
ITEM: BOX BOUNDS ff ff ff
0.0000000000000000e+00 2.0000000000000000e+01
0.0000000000000000e+00 2.0000000000000000e+01
0.0000000000000000e+00 2.0000000000000000e+01
ITEM: ATOMS id type radius x y z 
2 1 0.5 15 15 14.9913 
ITEM: TIMESTEP
14000
ITEM: NUMBER OF ATOMS
1
ITEM: BOX BOUNDS ff ff ff
0.0000000000000000e+00 2.0000000000000000e+01
0.0000000000000000e+00 2.0000000000000000e+01
0.0000000000000000e+00 2.0000000000000000e+01
ITEM: ATOMS id type radius x y z 
2 1 0.5 15 15 14.9899 
ITEM: TIMESTEP
15000
ITEM: NUMBER OF ATOMS
1
ITEM: BOX BOUNDS ff ff ff
0.0000000000000000e+00 2.0000000000000000e+01
0.0000000000000000e+00 2.0000000000000000e+01
0.0000000000000000e+00 2.0000000000000000e+01
ITEM: ATOMS id type radius x y z 
2 1 0.5 15 15 14.9884 
ITEM: TIMESTEP
16000
ITEM: NUMBER OF ATOMS
1
ITEM: BOX BOUNDS ff ff ff
0.0000000000000000e+00 2.0000000000000000e+01
0.0000000000000000e+00 2.0000000000000000e+01
0.0000000000000000e+00 2.0000000000000000e+01
ITEM: ATOMS id type radius x y z 
2 1 0.5 15 15 14.9868 
ITEM: TIMESTEP
17000
ITEM: NUMBER OF ATOMS
1
ITEM: BOX BOUNDS ff ff ff
0.0000000000000000e+00 2.0000000000000000e+01
0.0000000000000000e+00 2.0000000000000000e+01
0.0000000000000000e+00 2.0000000000000000e+01
ITEM: ATOMS id type radius x y z 
2 1 0.5 15 15 14.9851 
ITEM: TIMESTEP
18000
ITEM: NUMBER OF ATOMS
1
ITEM: BOX BOUNDS ff ff ff
0.0000000000000000e+00 2.0000000000000000e+01
0.0000000000000000e+00 2.0000000000000000e+01
0.0000000000000000e+00 2.0000000000000000e+01
ITEM: ATOMS id type radius x y z 
2 1 0.5 15 15 14.9833 
ITEM: TIMESTEP
19000
ITEM: NUMBER OF ATOMS
1
ITEM: BOX BOUNDS ff ff ff
0.0000000000000000e+00 2.0000000000000000e+01
0.0000000000000000e+00 2.0000000000000000e+01
0.0000000000000000e+00 2.0000000000000000e+01
ITEM: ATOMS id type radius x y z 
2 1 0.5 15 15 14.9813 
ITEM: TIMESTEP
20000
ITEM: NUMBER OF ATOMS
1
ITEM: BOX BOUNDS ff ff ff
0.0000000000000000e+00 2.0000000000000000e+01
0.0000000000000000e+00 2.0000000000000000e+01
0.0000000000000000e+00 2.0000000000000000e+01
ITEM: ATOMS id type radius x y z 
2 1 0.5 15 15 14.9793 
ITEM: TIMESTEP
21000
ITEM: NUMBER OF ATOMS
1
ITEM: BOX BOUNDS ff ff ff
0.0000000000000000e+00 2.0000000000000000e+01
0.0000000000000000e+00 2.0000000000000000e+01
0.0000000000000000e+00 2.0000000000000000e+01
ITEM: ATOMS id type radius x y z 
2 1 0.5 15 15 14.9772 
ITEM: TIMESTEP
22000
ITEM: NUMBER OF ATOMS
1
ITEM: BOX BOUNDS ff ff ff
0.0000000000000000e+00 2.0000000000000000e+01
0.0000000000000000e+00 2.0000000000000000e+01
0.0000000000000000e+00 2.0000000000000000e+01
ITEM: ATOMS id type radius x y z 
2 1 0.5 15 15 14.975 
ITEM: TIMESTEP
23000
ITEM: NUMBER OF ATOMS
1
ITEM: BOX BOUNDS ff ff ff
0.0000000000000000e+00 2.0000000000000000e+01
0.0000000000000000e+00 2.0000000000000000e+01
0.0000000000000000e+00 2.0000000000000000e+01
ITEM: ATOMS id type radius x y z 
2 1 0.5 15 15 14.9727 
ITEM: TIMESTEP
24000
ITEM: NUMBER OF ATOMS
1
ITEM: BOX BOUNDS ff ff ff
0.0000000000000000e+00 2.0000000000000000e+01
0.0000000000000000e+00 2.0000000000000000e+01
0.0000000000000000e+00 2.0000000000000000e+01
ITEM: ATOMS id type radius x y z 
2 1 0.5 15 15 14.9702 
ITEM: TIMESTEP
25000
ITEM: NUMBER OF ATOMS
1
ITEM: BOX BOUNDS ff ff ff
0.0000000000000000e+00 2.0000000000000000e+01
0.0000000000000000e+00 2.0000000000000000e+01
0.0000000000000000e+00 2.0000000000000000e+01
ITEM: ATOMS id type radius x y z 
2 1 0.5 15 15 14.9677 
ITEM: TIMESTEP
26000
ITEM: NUMBER OF ATOMS
1
ITEM: BOX BOUNDS ff ff ff
0.0000000000000000e+00 2.0000000000000000e+01
0.0000000000000000e+00 2.0000000000000000e+01
0.0000000000000000e+00 2.0000000000000000e+01
ITEM: ATOMS id type radius x y z 
2 1 0.5 15 15 14.9651 
ITEM: TIMESTEP
27000
ITEM: NUMBER OF ATOMS
1
ITEM: BOX BOUNDS ff ff ff
0.0000000000000000e+00 2.0000000000000000e+01
0.0000000000000000e+00 2.0000000000000000e+01
0.0000000000000000e+00 2.0000000000000000e+01
ITEM: ATOMS id type radius x y z 
2 1 0.5 15 15 14.9623 
ITEM: TIMESTEP
28000
ITEM: NUMBER OF ATOMS
1
ITEM: BOX BOUNDS ff ff ff
0.0000000000000000e+00 2.0000000000000000e+01
0.0000000000000000e+00 2.0000000000000000e+01
0.0000000000000000e+00 2.0000000000000000e+01
ITEM: ATOMS id type radius x y z 
2 1 0.5 15 15 14.9595 
ITEM: TIMESTEP
29000
ITEM: NUMBER OF ATOMS
1
ITEM: BOX BOUNDS ff ff ff
0.0000000000000000e+00 2.0000000000000000e+01
0.0000000000000000e+00 2.0000000000000000e+01
0.0000000000000000e+00 2.0000000000000000e+01
ITEM: ATOMS id type radius x y z 
2 1 0.5 15 15 14.9565 
ITEM: TIMESTEP
30000
ITEM: NUMBER OF ATOMS
1
ITEM: BOX BOUNDS ff ff ff
0.0000000000000000e+00 2.0000000000000000e+01
0.0000000000000000e+00 2.0000000000000000e+01
0.0000000000000000e+00 2.0000000000000000e+01
ITEM: ATOMS id type radius x y z 
2 1 0.5 15 15 14.9535 
ITEM: TIMESTEP
31000
ITEM: NUMBER OF ATOMS
1
ITEM: BOX BOUNDS ff ff ff
0.0000000000000000e+00 2.0000000000000000e+01
0.0000000000000000e+00 2.0000000000000000e+01
0.0000000000000000e+00 2.0000000000000000e+01
ITEM: ATOMS id type radius x y z 
2 1 0.5 15 15 14.9503 
ITEM: TIMESTEP
32000
ITEM: NUMBER OF ATOMS
1
ITEM: BOX BOUNDS ff ff ff
0.0000000000000000e+00 2.0000000000000000e+01
0.0000000000000000e+00 2.0000000000000000e+01
0.0000000000000000e+00 2.0000000000000000e+01
ITEM: ATOMS id type radius x y z 
2 1 0.5 15 15 14.9471 
ITEM: TIMESTEP
33000
ITEM: NUMBER OF ATOMS
1
ITEM: BOX BOUNDS ff ff ff
0.0000000000000000e+00 2.0000000000000000e+01
0.0000000000000000e+00 2.0000000000000000e+01
0.0000000000000000e+00 2.0000000000000000e+01
ITEM: ATOMS id type radius x y z 
2 1 0.5 15 15 14.9437 
ITEM: TIMESTEP
34000
ITEM: NUMBER OF ATOMS
1
ITEM: BOX BOUNDS ff ff ff
0.0000000000000000e+00 2.0000000000000000e+01
0.0000000000000000e+00 2.0000000000000000e+01
0.0000000000000000e+00 2.0000000000000000e+01
ITEM: ATOMS id type radius x y z 
2 1 0.5 15 15 14.9402 
ITEM: TIMESTEP
35000
ITEM: NUMBER OF ATOMS
1
ITEM: BOX BOUNDS ff ff ff
0.0000000000000000e+00 2.0000000000000000e+01
0.0000000000000000e+00 2.0000000000000000e+01
0.0000000000000000e+00 2.0000000000000000e+01
ITEM: ATOMS id type radius x y z 
2 1 0.5 15 15 14.9367 
ITEM: TIMESTEP
36000
ITEM: NUMBER OF ATOMS
1
ITEM: BOX BOUNDS ff ff ff
0.0000000000000000e+00 2.0000000000000000e+01
0.0000000000000000e+00 2.0000000000000000e+01
0.0000000000000000e+00 2.0000000000000000e+01
ITEM: ATOMS id type radius x y z 
2 1 0.5 15 15 14.933 
ITEM: TIMESTEP
37000
ITEM: NUMBER OF ATOMS
1
ITEM: BOX BOUNDS ff ff ff
0.0000000000000000e+00 2.0000000000000000e+01
0.0000000000000000e+00 2.0000000000000000e+01
0.0000000000000000e+00 2.0000000000000000e+01
ITEM: ATOMS id type radius x y z 
2 1 0.5 15 15 14.9292 
ITEM: TIMESTEP
38000
ITEM: NUMBER OF ATOMS
1
ITEM: BOX BOUNDS ff ff ff
0.0000000000000000e+00 2.0000000000000000e+01
0.0000000000000000e+00 2.0000000000000000e+01
0.0000000000000000e+00 2.0000000000000000e+01
ITEM: ATOMS id type radius x y z 
2 1 0.5 15 15 14.9254 
ITEM: TIMESTEP
39000
ITEM: NUMBER OF ATOMS
1
ITEM: BOX BOUNDS ff ff ff
0.0000000000000000e+00 2.0000000000000000e+01
0.0000000000000000e+00 2.0000000000000000e+01
0.0000000000000000e+00 2.0000000000000000e+01
ITEM: ATOMS id type radius x y z 
2 1 0.5 15 15 14.9214 
ITEM: TIMESTEP
40000
ITEM: NUMBER OF ATOMS
1
ITEM: BOX BOUNDS ff ff ff
0.0000000000000000e+00 2.0000000000000000e+01
0.0000000000000000e+00 2.0000000000000000e+01
0.0000000000000000e+00 2.0000000000000000e+01
ITEM: ATOMS id type radius x y z 
2 1 0.5 15 15 14.9173 
ITEM: TIMESTEP
41000
ITEM: NUMBER OF ATOMS
1
ITEM: BOX BOUNDS ff ff ff
0.0000000000000000e+00 2.0000000000000000e+01
0.0000000000000000e+00 2.0000000000000000e+01
0.0000000000000000e+00 2.0000000000000000e+01
ITEM: ATOMS id type radius x y z 
2 1 0.5 15 15 14.9131 
ITEM: TIMESTEP
42000
ITEM: NUMBER OF ATOMS
1
ITEM: BOX BOUNDS ff ff ff
0.0000000000000000e+00 2.0000000000000000e+01
0.0000000000000000e+00 2.0000000000000000e+01
0.0000000000000000e+00 2.0000000000000000e+01
ITEM: ATOMS id type radius x y z 
2 1 0.5 15 15 14.9088 
ITEM: TIMESTEP
43000
ITEM: NUMBER OF ATOMS
1
ITEM: BOX BOUNDS ff ff ff
0.0000000000000000e+00 2.0000000000000000e+01
0.0000000000000000e+00 2.0000000000000000e+01
0.0000000000000000e+00 2.0000000000000000e+01
ITEM: ATOMS id type radius x y z 
2 1 0.5 15 15 14.9044 
ITEM: TIMESTEP
44000
ITEM: NUMBER OF ATOMS
1
ITEM: BOX BOUNDS ff ff ff
0.0000000000000000e+00 2.0000000000000000e+01
0.0000000000000000e+00 2.0000000000000000e+01
0.0000000000000000e+00 2.0000000000000000e+01
ITEM: ATOMS id type radius x y z 
2 1 0.5 15 15 14.8999 
ITEM: TIMESTEP
45000
ITEM: NUMBER OF ATOMS
1
ITEM: BOX BOUNDS ff ff ff
0.0000000000000000e+00 2.0000000000000000e+01
0.0000000000000000e+00 2.0000000000000000e+01
0.0000000000000000e+00 2.0000000000000000e+01
ITEM: ATOMS id type radius x y z 
2 1 0.5 15 15 14.8953 
ITEM: TIMESTEP
46000
ITEM: NUMBER OF ATOMS
1
ITEM: BOX BOUNDS ff ff ff
0.0000000000000000e+00 2.0000000000000000e+01
0.0000000000000000e+00 2.0000000000000000e+01
0.0000000000000000e+00 2.0000000000000000e+01
ITEM: ATOMS id type radius x y z 
2 1 0.5 15 15 14.8906 
ITEM: TIMESTEP
47000
ITEM: NUMBER OF ATOMS
1
ITEM: BOX BOUNDS ff ff ff
0.0000000000000000e+00 2.0000000000000000e+01
0.0000000000000000e+00 2.0000000000000000e+01
0.0000000000000000e+00 2.0000000000000000e+01
ITEM: ATOMS id type radius x y z 
2 1 0.5 15 15 14.8858 
ITEM: TIMESTEP
48000
ITEM: NUMBER OF ATOMS
1
ITEM: BOX BOUNDS ff ff ff
0.0000000000000000e+00 2.0000000000000000e+01
0.0000000000000000e+00 2.0000000000000000e+01
0.0000000000000000e+00 2.0000000000000000e+01
ITEM: ATOMS id type radius x y z 
2 1 0.5 15 15 14.8809 
ITEM: TIMESTEP
49000
ITEM: NUMBER OF ATOMS
1
ITEM: BOX BOUNDS ff ff ff
0.0000000000000000e+00 2.0000000000000000e+01
0.0000000000000000e+00 2.0000000000000000e+01
0.0000000000000000e+00 2.0000000000000000e+01
ITEM: ATOMS id type radius x y z 
2 1 0.5 15 15 14.8759 
ITEM: TIMESTEP
50000
ITEM: NUMBER OF ATOMS
1
ITEM: BOX BOUNDS ff ff ff
0.0000000000000000e+00 2.0000000000000000e+01
0.0000000000000000e+00 2.0000000000000000e+01
0.0000000000000000e+00 2.0000000000000000e+01
ITEM: ATOMS id type radius x y z 
2 1 0.5 15 15 14.8708 
ITEM: TIMESTEP
51000
ITEM: NUMBER OF ATOMS
1
ITEM: BOX BOUNDS ff ff ff
0.0000000000000000e+00 2.0000000000000000e+01
0.0000000000000000e+00 2.0000000000000000e+01
0.0000000000000000e+00 2.0000000000000000e+01
ITEM: ATOMS id type radius x y z 
2 1 0.5 15 15 14.8656 
ITEM: TIMESTEP
52000
ITEM: NUMBER OF ATOMS
1
ITEM: BOX BOUNDS ff ff ff
0.0000000000000000e+00 2.0000000000000000e+01
0.0000000000000000e+00 2.0000000000000000e+01
0.0000000000000000e+00 2.0000000000000000e+01
ITEM: ATOMS id type radius x y z 
2 1 0.5 15 15 14.8602 
ITEM: TIMESTEP
53000
ITEM: NUMBER OF ATOMS
1
ITEM: BOX BOUNDS ff ff ff
0.0000000000000000e+00 2.0000000000000000e+01
0.0000000000000000e+00 2.0000000000000000e+01
0.0000000000000000e+00 2.0000000000000000e+01
ITEM: ATOMS id type radius x y z 
2 1 0.5 15 15 14.8548 
ITEM: TIMESTEP
54000
ITEM: NUMBER OF ATOMS
1
ITEM: BOX BOUNDS ff ff ff
0.0000000000000000e+00 2.0000000000000000e+01
0.0000000000000000e+00 2.0000000000000000e+01
0.0000000000000000e+00 2.0000000000000000e+01
ITEM: ATOMS id type radius x y z 
2 1 0.5 15 15 14.8493 
ITEM: TIMESTEP
55000
ITEM: NUMBER OF ATOMS
1
ITEM: BOX BOUNDS ff ff ff
0.0000000000000000e+00 2.0000000000000000e+01
0.0000000000000000e+00 2.0000000000000000e+01
0.0000000000000000e+00 2.0000000000000000e+01
ITEM: ATOMS id type radius x y z 
2 1 0.5 15 15 14.8436 
ITEM: TIMESTEP
56000
ITEM: NUMBER OF ATOMS
1
ITEM: BOX BOUNDS ff ff ff
0.0000000000000000e+00 2.0000000000000000e+01
0.0000000000000000e+00 2.0000000000000000e+01
0.0000000000000000e+00 2.0000000000000000e+01
ITEM: ATOMS id type radius x y z 
2 1 0.5 15 15 14.8379 
ITEM: TIMESTEP
57000
ITEM: NUMBER OF ATOMS
1
ITEM: BOX BOUNDS ff ff ff
0.0000000000000000e+00 2.0000000000000000e+01
0.0000000000000000e+00 2.0000000000000000e+01
0.0000000000000000e+00 2.0000000000000000e+01
ITEM: ATOMS id type radius x y z 
2 1 0.5 15 15 14.8321 
ITEM: TIMESTEP
58000
ITEM: NUMBER OF ATOMS
1
ITEM: BOX BOUNDS ff ff ff
0.0000000000000000e+00 2.0000000000000000e+01
0.0000000000000000e+00 2.0000000000000000e+01
0.0000000000000000e+00 2.0000000000000000e+01
ITEM: ATOMS id type radius x y z 
2 1 0.5 15 15 14.8261 
ITEM: TIMESTEP
59000
ITEM: NUMBER OF ATOMS
1
ITEM: BOX BOUNDS ff ff ff
0.0000000000000000e+00 2.0000000000000000e+01
0.0000000000000000e+00 2.0000000000000000e+01
0.0000000000000000e+00 2.0000000000000000e+01
ITEM: ATOMS id type radius x y z 
2 1 0.5 15 15 14.8201 
ITEM: TIMESTEP
60000
ITEM: NUMBER OF ATOMS
1
ITEM: BOX BOUNDS ff ff ff
0.0000000000000000e+00 2.0000000000000000e+01
0.0000000000000000e+00 2.0000000000000000e+01
0.0000000000000000e+00 2.0000000000000000e+01
ITEM: ATOMS id type radius x y z 
2 1 0.5 15 15 14.8139 
ITEM: TIMESTEP
61000
ITEM: NUMBER OF ATOMS
1
ITEM: BOX BOUNDS ff ff ff
0.0000000000000000e+00 2.0000000000000000e+01
0.0000000000000000e+00 2.0000000000000000e+01
0.0000000000000000e+00 2.0000000000000000e+01
ITEM: ATOMS id type radius x y z 
2 1 0.5 15 15 14.8077 
ITEM: TIMESTEP
62000
ITEM: NUMBER OF ATOMS
1
ITEM: BOX BOUNDS ff ff ff
0.0000000000000000e+00 2.0000000000000000e+01
0.0000000000000000e+00 2.0000000000000000e+01
0.0000000000000000e+00 2.0000000000000000e+01
ITEM: ATOMS id type radius x y z 
2 1 0.5 15 15 14.8013 
ITEM: TIMESTEP
63000
ITEM: NUMBER OF ATOMS
1
ITEM: BOX BOUNDS ff ff ff
0.0000000000000000e+00 2.0000000000000000e+01
0.0000000000000000e+00 2.0000000000000000e+01
0.0000000000000000e+00 2.0000000000000000e+01
ITEM: ATOMS id type radius x y z 
2 1 0.5 15 15 14.7948 
ITEM: TIMESTEP
64000
ITEM: NUMBER OF ATOMS
1
ITEM: BOX BOUNDS ff ff ff
0.0000000000000000e+00 2.0000000000000000e+01
0.0000000000000000e+00 2.0000000000000000e+01
0.0000000000000000e+00 2.0000000000000000e+01
ITEM: ATOMS id type radius x y z 
2 1 0.5 15 15 14.7883 
ITEM: TIMESTEP
65000
ITEM: NUMBER OF ATOMS
1
ITEM: BOX BOUNDS ff ff ff
0.0000000000000000e+00 2.0000000000000000e+01
0.0000000000000000e+00 2.0000000000000000e+01
0.0000000000000000e+00 2.0000000000000000e+01
ITEM: ATOMS id type radius x y z 
2 1 0.5 15 15 14.7816 
ITEM: TIMESTEP
66000
ITEM: NUMBER OF ATOMS
1
ITEM: BOX BOUNDS ff ff ff
0.0000000000000000e+00 2.0000000000000000e+01
0.0000000000000000e+00 2.0000000000000000e+01
0.0000000000000000e+00 2.0000000000000000e+01
ITEM: ATOMS id type radius x y z 
2 1 0.5 15 15 14.7748 
ITEM: TIMESTEP
67000
ITEM: NUMBER OF ATOMS
1
ITEM: BOX BOUNDS ff ff ff
0.0000000000000000e+00 2.0000000000000000e+01
0.0000000000000000e+00 2.0000000000000000e+01
0.0000000000000000e+00 2.0000000000000000e+01
ITEM: ATOMS id type radius x y z 
2 1 0.5 15 15 14.768 
ITEM: TIMESTEP
68000
ITEM: NUMBER OF ATOMS
1
ITEM: BOX BOUNDS ff ff ff
0.0000000000000000e+00 2.0000000000000000e+01
0.0000000000000000e+00 2.0000000000000000e+01
0.0000000000000000e+00 2.0000000000000000e+01
ITEM: ATOMS id type radius x y z 
2 1 0.5 15 15 14.761 
ITEM: TIMESTEP
69000
ITEM: NUMBER OF ATOMS
1
ITEM: BOX BOUNDS ff ff ff
0.0000000000000000e+00 2.0000000000000000e+01
0.0000000000000000e+00 2.0000000000000000e+01
0.0000000000000000e+00 2.0000000000000000e+01
ITEM: ATOMS id type radius x y z 
2 1 0.5 15 15 14.7539 
ITEM: TIMESTEP
70000
ITEM: NUMBER OF ATOMS
1
ITEM: BOX BOUNDS ff ff ff
0.0000000000000000e+00 2.0000000000000000e+01
0.0000000000000000e+00 2.0000000000000000e+01
0.0000000000000000e+00 2.0000000000000000e+01
ITEM: ATOMS id type radius x y z 
2 1 0.5 15 15 14.7467 
ITEM: TIMESTEP
71000
ITEM: NUMBER OF ATOMS
1
ITEM: BOX BOUNDS ff ff ff
0.0000000000000000e+00 2.0000000000000000e+01
0.0000000000000000e+00 2.0000000000000000e+01
0.0000000000000000e+00 2.0000000000000000e+01
ITEM: ATOMS id type radius x y z 
2 1 0.5 15 15 14.7394 
ITEM: TIMESTEP
72000
ITEM: NUMBER OF ATOMS
1
ITEM: BOX BOUNDS ff ff ff
0.0000000000000000e+00 2.0000000000000000e+01
0.0000000000000000e+00 2.0000000000000000e+01
0.0000000000000000e+00 2.0000000000000000e+01
ITEM: ATOMS id type radius x y z 
2 1 0.5 15 15 14.732 
ITEM: TIMESTEP
73000
ITEM: NUMBER OF ATOMS
1
ITEM: BOX BOUNDS ff ff ff
0.0000000000000000e+00 2.0000000000000000e+01
0.0000000000000000e+00 2.0000000000000000e+01
0.0000000000000000e+00 2.0000000000000000e+01
ITEM: ATOMS id type radius x y z 
2 1 0.5 15 15 14.7245 
ITEM: TIMESTEP
74000
ITEM: NUMBER OF ATOMS
1
ITEM: BOX BOUNDS ff ff ff
0.0000000000000000e+00 2.0000000000000000e+01
0.0000000000000000e+00 2.0000000000000000e+01
0.0000000000000000e+00 2.0000000000000000e+01
ITEM: ATOMS id type radius x y z 
2 1 0.5 15 15 14.7169 
ITEM: TIMESTEP
75000
ITEM: NUMBER OF ATOMS
1
ITEM: BOX BOUNDS ff ff ff
0.0000000000000000e+00 2.0000000000000000e+01
0.0000000000000000e+00 2.0000000000000000e+01
0.0000000000000000e+00 2.0000000000000000e+01
ITEM: ATOMS id type radius x y z 
2 1 0.5 15 15 14.7092 
ITEM: TIMESTEP
76000
ITEM: NUMBER OF ATOMS
1
ITEM: BOX BOUNDS ff ff ff
0.0000000000000000e+00 2.0000000000000000e+01
0.0000000000000000e+00 2.0000000000000000e+01
0.0000000000000000e+00 2.0000000000000000e+01
ITEM: ATOMS id type radius x y z 
2 1 0.5 15 15 14.7014 
ITEM: TIMESTEP
77000
ITEM: NUMBER OF ATOMS
1
ITEM: BOX BOUNDS ff ff ff
0.0000000000000000e+00 2.0000000000000000e+01
0.0000000000000000e+00 2.0000000000000000e+01
0.0000000000000000e+00 2.0000000000000000e+01
ITEM: ATOMS id type radius x y z 
2 1 0.5 15 15 14.6935 
ITEM: TIMESTEP
78000
ITEM: NUMBER OF ATOMS
1
ITEM: BOX BOUNDS ff ff ff
0.0000000000000000e+00 2.0000000000000000e+01
0.0000000000000000e+00 2.0000000000000000e+01
0.0000000000000000e+00 2.0000000000000000e+01
ITEM: ATOMS id type radius x y z 
2 1 0.5 15 15 14.6855 
ITEM: TIMESTEP
79000
ITEM: NUMBER OF ATOMS
1
ITEM: BOX BOUNDS ff ff ff
0.0000000000000000e+00 2.0000000000000000e+01
0.0000000000000000e+00 2.0000000000000000e+01
0.0000000000000000e+00 2.0000000000000000e+01
ITEM: ATOMS id type radius x y z 
2 1 0.5 15 15 14.6774 
ITEM: TIMESTEP
80000
ITEM: NUMBER OF ATOMS
1
ITEM: BOX BOUNDS ff ff ff
0.0000000000000000e+00 2.0000000000000000e+01
0.0000000000000000e+00 2.0000000000000000e+01
0.0000000000000000e+00 2.0000000000000000e+01
ITEM: ATOMS id type radius x y z 
2 1 0.5 15 15 14.6692 
ITEM: TIMESTEP
81000
ITEM: NUMBER OF ATOMS
1
ITEM: BOX BOUNDS ff ff ff
0.0000000000000000e+00 2.0000000000000000e+01
0.0000000000000000e+00 2.0000000000000000e+01
0.0000000000000000e+00 2.0000000000000000e+01
ITEM: ATOMS id type radius x y z 
2 1 0.5 15 15 14.6609 
ITEM: TIMESTEP
82000
ITEM: NUMBER OF ATOMS
1
ITEM: BOX BOUNDS ff ff ff
0.0000000000000000e+00 2.0000000000000000e+01
0.0000000000000000e+00 2.0000000000000000e+01
0.0000000000000000e+00 2.0000000000000000e+01
ITEM: ATOMS id type radius x y z 
2 1 0.5 15 15 14.6524 
ITEM: TIMESTEP
83000
ITEM: NUMBER OF ATOMS
1
ITEM: BOX BOUNDS ff ff ff
0.0000000000000000e+00 2.0000000000000000e+01
0.0000000000000000e+00 2.0000000000000000e+01
0.0000000000000000e+00 2.0000000000000000e+01
ITEM: ATOMS id type radius x y z 
2 1 0.5 15 15 14.6439 
ITEM: TIMESTEP
84000
ITEM: NUMBER OF ATOMS
1
ITEM: BOX BOUNDS ff ff ff
0.0000000000000000e+00 2.0000000000000000e+01
0.0000000000000000e+00 2.0000000000000000e+01
0.0000000000000000e+00 2.0000000000000000e+01
ITEM: ATOMS id type radius x y z 
2 1 0.5 15 15 14.6353 
ITEM: TIMESTEP
85000
ITEM: NUMBER OF ATOMS
1
ITEM: BOX BOUNDS ff ff ff
0.0000000000000000e+00 2.0000000000000000e+01
0.0000000000000000e+00 2.0000000000000000e+01
0.0000000000000000e+00 2.0000000000000000e+01
ITEM: ATOMS id type radius x y z 
2 1 0.5 15 15 14.6265 
ITEM: TIMESTEP
86000
ITEM: NUMBER OF ATOMS
1
ITEM: BOX BOUNDS ff ff ff
0.0000000000000000e+00 2.0000000000000000e+01
0.0000000000000000e+00 2.0000000000000000e+01
0.0000000000000000e+00 2.0000000000000000e+01
ITEM: ATOMS id type radius x y z 
2 1 0.5 15 15 14.6177 
ITEM: TIMESTEP
87000
ITEM: NUMBER OF ATOMS
1
ITEM: BOX BOUNDS ff ff ff
0.0000000000000000e+00 2.0000000000000000e+01
0.0000000000000000e+00 2.0000000000000000e+01
0.0000000000000000e+00 2.0000000000000000e+01
ITEM: ATOMS id type radius x y z 
2 1 0.5 15 15 14.6088 
ITEM: TIMESTEP
88000
ITEM: NUMBER OF ATOMS
1
ITEM: BOX BOUNDS ff ff ff
0.0000000000000000e+00 2.0000000000000000e+01
0.0000000000000000e+00 2.0000000000000000e+01
0.0000000000000000e+00 2.0000000000000000e+01
ITEM: ATOMS id type radius x y z 
2 1 0.5 15 15 14.5997 
ITEM: TIMESTEP
89000
ITEM: NUMBER OF ATOMS
1
ITEM: BOX BOUNDS ff ff ff
0.0000000000000000e+00 2.0000000000000000e+01
0.0000000000000000e+00 2.0000000000000000e+01
0.0000000000000000e+00 2.0000000000000000e+01
ITEM: ATOMS id type radius x y z 
2 1 0.5 15 15 14.5906 
ITEM: TIMESTEP
90000
ITEM: NUMBER OF ATOMS
1
ITEM: BOX BOUNDS ff ff ff
0.0000000000000000e+00 2.0000000000000000e+01
0.0000000000000000e+00 2.0000000000000000e+01
0.0000000000000000e+00 2.0000000000000000e+01
ITEM: ATOMS id type radius x y z 
2 1 0.5 15 15 14.5813 
ITEM: TIMESTEP
91000
ITEM: NUMBER OF ATOMS
1
ITEM: BOX BOUNDS ff ff ff
0.0000000000000000e+00 2.0000000000000000e+01
0.0000000000000000e+00 2.0000000000000000e+01
0.0000000000000000e+00 2.0000000000000000e+01
ITEM: ATOMS id type radius x y z 
2 1 0.5 15 15 14.572 
ITEM: TIMESTEP
92000
ITEM: NUMBER OF ATOMS
1
ITEM: BOX BOUNDS ff ff ff
0.0000000000000000e+00 2.0000000000000000e+01
0.0000000000000000e+00 2.0000000000000000e+01
0.0000000000000000e+00 2.0000000000000000e+01
ITEM: ATOMS id type radius x y z 
2 1 0.5 15 15 14.5625 
ITEM: TIMESTEP
93000
ITEM: NUMBER OF ATOMS
1
ITEM: BOX BOUNDS ff ff ff
0.0000000000000000e+00 2.0000000000000000e+01
0.0000000000000000e+00 2.0000000000000000e+01
0.0000000000000000e+00 2.0000000000000000e+01
ITEM: ATOMS id type radius x y z 
2 1 0.5 15 15 14.5529 
ITEM: TIMESTEP
94000
ITEM: NUMBER OF ATOMS
1
ITEM: BOX BOUNDS ff ff ff
0.0000000000000000e+00 2.0000000000000000e+01
0.0000000000000000e+00 2.0000000000000000e+01
0.0000000000000000e+00 2.0000000000000000e+01
ITEM: ATOMS id type radius x y z 
2 1 0.5 15 15 14.5433 
ITEM: TIMESTEP
95000
ITEM: NUMBER OF ATOMS
1
ITEM: BOX BOUNDS ff ff ff
0.0000000000000000e+00 2.0000000000000000e+01
0.0000000000000000e+00 2.0000000000000000e+01
0.0000000000000000e+00 2.0000000000000000e+01
ITEM: ATOMS id type radius x y z 
2 1 0.5 15 15 14.5335 
ITEM: TIMESTEP
96000
ITEM: NUMBER OF ATOMS
1
ITEM: BOX BOUNDS ff ff ff
0.0000000000000000e+00 2.0000000000000000e+01
0.0000000000000000e+00 2.0000000000000000e+01
0.0000000000000000e+00 2.0000000000000000e+01
ITEM: ATOMS id type radius x y z 
2 1 0.5 15 15 14.5236 
ITEM: TIMESTEP
97000
ITEM: NUMBER OF ATOMS
1
ITEM: BOX BOUNDS ff ff ff
0.0000000000000000e+00 2.0000000000000000e+01
0.0000000000000000e+00 2.0000000000000000e+01
0.0000000000000000e+00 2.0000000000000000e+01
ITEM: ATOMS id type radius x y z 
2 1 0.5 15 15 14.5137 
ITEM: TIMESTEP
98000
ITEM: NUMBER OF ATOMS
1
ITEM: BOX BOUNDS ff ff ff
0.0000000000000000e+00 2.0000000000000000e+01
0.0000000000000000e+00 2.0000000000000000e+01
0.0000000000000000e+00 2.0000000000000000e+01
ITEM: ATOMS id type radius x y z 
2 1 0.5 15 15 14.5036 
ITEM: TIMESTEP
99000
ITEM: NUMBER OF ATOMS
1
ITEM: BOX BOUNDS ff ff ff
0.0000000000000000e+00 2.0000000000000000e+01
0.0000000000000000e+00 2.0000000000000000e+01
0.0000000000000000e+00 2.0000000000000000e+01
ITEM: ATOMS id type radius x y z 
2 1 0.5 15 15 14.4934 
ITEM: TIMESTEP
100000
ITEM: NUMBER OF ATOMS
1
ITEM: BOX BOUNDS ff ff ff
0.0000000000000000e+00 2.0000000000000000e+01
0.0000000000000000e+00 2.0000000000000000e+01
0.0000000000000000e+00 2.0000000000000000e+01
ITEM: ATOMS id type radius x y z 
2 1 0.5 15 15 14.4831 
ITEM: TIMESTEP
101000
ITEM: NUMBER OF ATOMS
1
ITEM: BOX BOUNDS ff ff ff
0.0000000000000000e+00 2.0000000000000000e+01
0.0000000000000000e+00 2.0000000000000000e+01
0.0000000000000000e+00 2.0000000000000000e+01
ITEM: ATOMS id type radius x y z 
2 1 0.5 15 15 14.4727 
ITEM: TIMESTEP
102000
ITEM: NUMBER OF ATOMS
1
ITEM: BOX BOUNDS ff ff ff
0.0000000000000000e+00 2.0000000000000000e+01
0.0000000000000000e+00 2.0000000000000000e+01
0.0000000000000000e+00 2.0000000000000000e+01
ITEM: ATOMS id type radius x y z 
2 1 0.5 15 15 14.4622 
ITEM: TIMESTEP
103000
ITEM: NUMBER OF ATOMS
1
ITEM: BOX BOUNDS ff ff ff
0.0000000000000000e+00 2.0000000000000000e+01
0.0000000000000000e+00 2.0000000000000000e+01
0.0000000000000000e+00 2.0000000000000000e+01
ITEM: ATOMS id type radius x y z 
2 1 0.5 15 15 14.4516 
ITEM: TIMESTEP
104000
ITEM: NUMBER OF ATOMS
1
ITEM: BOX BOUNDS ff ff ff
0.0000000000000000e+00 2.0000000000000000e+01
0.0000000000000000e+00 2.0000000000000000e+01
0.0000000000000000e+00 2.0000000000000000e+01
ITEM: ATOMS id type radius x y z 
2 1 0.5 15 15 14.4409 
ITEM: TIMESTEP
105000
ITEM: NUMBER OF ATOMS
1
ITEM: BOX BOUNDS ff ff ff
0.0000000000000000e+00 2.0000000000000000e+01
0.0000000000000000e+00 2.0000000000000000e+01
0.0000000000000000e+00 2.0000000000000000e+01
ITEM: ATOMS id type radius x y z 
2 1 0.5 15 15 14.4301 
ITEM: TIMESTEP
106000
ITEM: NUMBER OF ATOMS
1
ITEM: BOX BOUNDS ff ff ff
0.0000000000000000e+00 2.0000000000000000e+01
0.0000000000000000e+00 2.0000000000000000e+01
0.0000000000000000e+00 2.0000000000000000e+01
ITEM: ATOMS id type radius x y z 
2 1 0.5 15 15 14.4192 
ITEM: TIMESTEP
107000
ITEM: NUMBER OF ATOMS
1
ITEM: BOX BOUNDS ff ff ff
0.0000000000000000e+00 2.0000000000000000e+01
0.0000000000000000e+00 2.0000000000000000e+01
0.0000000000000000e+00 2.0000000000000000e+01
ITEM: ATOMS id type radius x y z 
2 1 0.5 15 15 14.4082 
ITEM: TIMESTEP
108000
ITEM: NUMBER OF ATOMS
1
ITEM: BOX BOUNDS ff ff ff
0.0000000000000000e+00 2.0000000000000000e+01
0.0000000000000000e+00 2.0000000000000000e+01
0.0000000000000000e+00 2.0000000000000000e+01
ITEM: ATOMS id type radius x y z 
2 1 0.5 15 15 14.3971 
ITEM: TIMESTEP
109000
ITEM: NUMBER OF ATOMS
1
ITEM: BOX BOUNDS ff ff ff
0.0000000000000000e+00 2.0000000000000000e+01
0.0000000000000000e+00 2.0000000000000000e+01
0.0000000000000000e+00 2.0000000000000000e+01
ITEM: ATOMS id type radius x y z 
2 1 0.5 15 15 14.3859 
ITEM: TIMESTEP
110000
ITEM: NUMBER OF ATOMS
1
ITEM: BOX BOUNDS ff ff ff
0.0000000000000000e+00 2.0000000000000000e+01
0.0000000000000000e+00 2.0000000000000000e+01
0.0000000000000000e+00 2.0000000000000000e+01
ITEM: ATOMS id type radius x y z 
2 1 0.5 15 15 14.3746 
ITEM: TIMESTEP
111000
ITEM: NUMBER OF ATOMS
1
ITEM: BOX BOUNDS ff ff ff
0.0000000000000000e+00 2.0000000000000000e+01
0.0000000000000000e+00 2.0000000000000000e+01
0.0000000000000000e+00 2.0000000000000000e+01
ITEM: ATOMS id type radius x y z 
2 1 0.5 15 15 14.3631 
ITEM: TIMESTEP
112000
ITEM: NUMBER OF ATOMS
1
ITEM: BOX BOUNDS ff ff ff
0.0000000000000000e+00 2.0000000000000000e+01
0.0000000000000000e+00 2.0000000000000000e+01
0.0000000000000000e+00 2.0000000000000000e+01